TITLE     = ""
VARIABLES = "cycle"
"plunge [mm]"
"pitch [deg]"
"lift [N]"
ZONE T="Run 0881"
 STRANDID=0, SOLUTIONTIME=0
 I=6144, J=1, K=1, ZONETYPE=Ordered
 DATAPACKING=POINT
 DT=(SINGLE SINGLE SINGLE SINGLE )
 -9.670000076E-001 4.681760025E+001 5.996600151E+000 5.354166403E-002
 -9.664999843E-001 4.679529953E+001 6.081500053E+000 5.593749881E-002
 -9.660000205E-001 4.676649857E+001 6.174399853E+000 5.854166672E-002
 -9.654999971E-001 4.673669815E+001 6.267399788E+000 6.125000119E-002
 -9.649999738E-001 4.670989990E+001 6.349199772E+000 6.395833194E-002
 -9.646000266E-001 4.666920090E+001 6.447000027E+000 6.677082926E-002
 -9.641000032E-001 4.663710022E+001 6.536799908E+000 6.958333403E-002
 -9.635999799E-001 4.659939957E+001 6.631400108E+000 7.249999791E-002
 -9.631000161E-001 4.656539917E+001 6.716400146E+000 7.552082837E-002
 -9.625999928E-001 4.652930069E+001 6.801499844E+000 7.843749970E-002
 -9.621000290E-001 4.649280167E+001 6.888199806E+000 8.145833015E-002
 -9.616000056E-001 4.645299911E+001 6.982900143E+000 8.447916806E-002
 -9.610999823E-001 4.641400146E+001 7.074500084E+000 8.760416508E-002
 -9.606999755E-001 4.637939835E+001 7.157999992E+000 9.072916210E-002
 -9.602000117E-001 4.634239960E+001 7.246399879E+000 9.375000000E-002
 -9.596999884E-001 4.629999924E+001 7.342800140E+000 9.687500447E-002
 -9.592000246E-001 4.626539993E+001 7.426400185E+000 1.001041681E-001
 -9.587000012E-001 4.623229980E+001 7.508399963E+000 1.032291651E-001
 -9.581999779E-001 4.619559860E+001 7.592100143E+000 1.064583361E-001
 -9.577000141E-001 4.615299988E+001 7.685400009E+000 1.097916737E-001
 -9.571999907E-001 4.611500168E+001 7.773900032E+000 1.130208299E-001
 -9.567000270E-001 4.608509827E+001 7.848000050E+000 1.164583340E-001
 -9.563000202E-001 4.604539871E+001 7.934899807E+000 1.197916716E-001
 -9.557999969E-001 4.600949860E+001 8.015500069E+000 1.232291684E-001
 -9.552999735E-001 4.596849823E+001 8.107299805E+000 1.267708242E-001
 -9.548000097E-001 4.593040085E+001 8.195899963E+000 1.302083284E-001
 -9.542999864E-001 4.589080048E+001 8.286199570E+000 1.338541657E-001
 -9.538000226E-001 4.585549927E+001 8.368499756E+000 1.373958290E-001
 -9.532999992E-001 4.581639862E+001 8.457200050E+000 1.410416663E-001
 -9.527999759E-001 4.577040100E+001 8.555600166E+000 1.446875036E-001
 -9.524000287E-001 4.573849869E+001 8.641200066E+000 1.483333260E-001
 -9.519000053E-001 4.571369934E+001 8.712200165E+000 1.519791633E-001
 -9.513999820E-001 4.566709900E+001 8.809100151E+000 1.555208266E-001
 -9.509000182E-001 4.561750031E+001 8.909299850E+000 1.591666639E-001
 -9.503999949E-001 4.558629990E+001 8.988499641E+000 1.627083421E-001
 -9.498999715E-001 4.553860092E+001 9.077400208E+000 1.662500054E-001
 -9.494000077E-001 4.549959946E+001 9.158300400E+000 1.696874946E-001
 -9.488999844E-001 4.544620132E+001 9.248900414E+000 1.730208248E-001
 -9.484000206E-001 4.539709854E+001 9.339500427E+000 1.763541698E-001
 -9.480000138E-001 4.534500122E+001 9.433400154E+000 1.795833260E-001
 -9.474999905E-001 4.529420090E+001 9.522500038E+000 1.826041639E-001
 -9.470000267E-001 4.524470139E+001 9.606800079E+000 1.856250018E-001
 -9.465000033E-001 4.519699860E+001 9.684599876E+000 1.884374917E-001
 -9.459999800E-001 4.514540100E+001 9.768899918E+000 1.911458373E-001
 -9.455000162E-001 4.508789825E+001 9.862999916E+000 1.938541681E-001
 -9.449999928E-001 4.503459930E+001 9.953800201E+000 1.962500066E-001
 -9.444999695E-001 4.497790146E+001 1.005280018E+001 1.986458302E-001
 -9.441000223E-001 4.492900085E+001 1.013889980E+001 2.009375095E-001
 -9.435999990E-001 4.487490082E+001 1.022500038E+001 2.031250000E-001
 -9.430999756E-001 4.482799911E+001 1.029979992E+001 2.051041573E-001
 -9.426000118E-001 4.477220154E+001 1.038430023E+001 2.069791555E-001
 -9.420999885E-001 4.471900177E+001 1.047049999E+001 2.088541687E-001
 -9.416000247E-001 4.466460037E+001 1.056159973E+001 2.106249928E-001
 -9.411000013E-001 4.461249924E+001 1.064789963E+001 2.121874988E-001
 -9.405999780E-001 4.456179810E+001 1.072929955E+001 2.137500048E-001
 -9.401000142E-001 4.451750183E+001 1.080270004E+001 2.153124958E-001
 -9.397000074E-001 4.446519852E+001 1.088580036E+001 2.166666687E-001
 -9.391999841E-001 4.441299820E+001 1.096889973E+001 2.179166675E-001
 -9.387000203E-001 4.435879898E+001 1.105539989E+001 2.191666663E-001
 -9.381999969E-001 4.430369949E+001 1.114509964E+001 2.204166651E-001
 -9.376999736E-001 4.424980164E+001 1.123820019E+001 2.214583308E-001
 -9.372000098E-001 4.419770050E+001 1.132470036E+001 2.224999964E-001
 -9.366999865E-001 4.415010071E+001 1.140649986E+001 2.234374881E-001
 -9.362000227E-001 4.410189819E+001 1.148659992E+001 2.242708206E-001
 -9.356999993E-001 4.404769897E+001 1.157320023E+001 2.250000089E-001
 -9.352999926E-001 4.398740005E+001 1.166650009E+001 2.256250083E-001
 -9.347999692E-001 4.392940140E+001 1.175160027E+001 2.262499928E-001
 -9.343000054E-001 4.387369919E+001 1.184010029E+001 2.266666740E-001
 -9.337999821E-001 4.381999969E+001 1.191709995E+001 2.269791663E-001
 -9.333000183E-001 4.375970078E+001 1.201049995E+001 2.272916585E-001
 -9.327999949E-001 4.369879913E+001 1.209090042E+001 2.273958325E-001
 -9.322999716E-001 4.362659836E+001 1.218939972E+001 2.273958325E-001
 -9.318000078E-001 4.356100082E+001 1.227149963E+001 2.272916585E-001
 -9.314000010E-001 4.349570084E+001 1.236019993E+001 2.270833254E-001
 -9.308999777E-001 4.343920135E+001 1.242430019E+001 2.267708331E-001
 -9.304000139E-001 4.337500000E+001 1.251299953E+001 2.262499928E-001
 -9.298999906E-001 4.330680084E+001 1.259689999E+001 2.256250083E-001
 -9.294000268E-001 4.323640060E+001 1.268910027E+001 2.248958349E-001
 -9.289000034E-001 4.317520142E+001 1.276650047E+001 2.240625024E-001
 -9.283999801E-001 4.311180115E+001 1.284060001E+001 2.231250107E-001
 -9.279000163E-001 4.304389954E+001 1.293130016E+001 2.220833302E-001
 -9.273999929E-001 4.298109818E+001 1.300720024E+001 2.209375054E-001
 -9.269999862E-001 4.291429901E+001 1.309790039E+001 2.196874917E-001
 -9.265000224E-001 4.284859848E+001 1.318050003E+001 2.182291597E-001
 -9.259999990E-001 4.279000092E+001 1.324489975E+001 2.167708427E-001
 -9.254999757E-001 4.271730042E+001 1.334570026E+001 2.153124958E-001
 -9.250000119E-001 4.264989853E+001 1.342679977E+001 2.136458308E-001
 -9.244999886E-001 4.258689880E+001 1.349960041E+001 2.119791657E-001
 -9.240000248E-001 4.252750015E+001 1.357069969E+001 2.102083415E-001
 -9.235000014E-001 4.246649933E+001 1.365190029E+001 2.084375024E-001
 -9.230999947E-001 4.239189911E+001 1.374800014E+001 2.065625042E-001
 -9.225999713E-001 4.232820129E+001 1.382759953E+001 2.045833319E-001
 -9.221000075E-001 4.226490021E+001 1.390559959E+001 2.026041597E-001
 -9.215999842E-001 4.220579910E+001 1.398359966E+001 2.005208284E-001
 -9.211000204E-001 4.213959885E+001 1.406830025E+001 1.984375119E-001
 -9.205999970E-001 4.207139969E+001 1.415310001E+001 1.962500066E-001
 -9.200999737E-001 4.200320053E+001 1.424120045E+001 1.939583272E-001
 -9.196000099E-001 4.194400024E+001 1.431610012E+001 1.917708367E-001
 -9.190999866E-001 4.187939835E+001 1.439099979E+001 1.894791573E-001
 -9.186999798E-001 4.179999924E+001 1.448600006E+001 1.870833337E-001
 -9.182000160E-001 4.172880173E+001 1.456599998E+001 1.846875101E-001
 -9.176999927E-001 4.165599823E+001 1.464770031E+001 1.821874976E-001
 -9.171999693E-001 4.158380127E+001 1.472780037E+001 1.797916740E-001
 -9.167000055E-001 4.150830078E+001 1.480799961E+001 1.771875024E-001
 -9.161999822E-001 4.143330002E+001 1.488650036E+001 1.746874899E-001
 -9.157000184E-001 4.135570145E+001 1.496679974E+001 1.720833331E-001
 -9.151999950E-001 4.127859879E+001 1.504539967E+001 1.694791615E-001
 -9.147999883E-001 4.120009995E+001 1.512909985E+001 1.668750048E-001
 -9.143000245E-001 4.112599945E+001 1.520450020E+001 1.642708331E-001
 -9.138000011E-001 4.104600143E+001 1.528999996E+001 1.616666764E-001
 -9.132999778E-001 4.096680069E+001 1.537220001E+001 1.590625048E-001
 -9.128000140E-001 4.088579941E+001 1.545779991E+001 1.564583331E-001
 -9.122999907E-001 4.080860138E+001 1.553670025E+001 1.538541615E-001
 -9.118000269E-001 4.073469925E+001 1.560729980E+001 1.513541639E-001
 -9.113000035E-001 4.065679932E+001 1.568130016E+001 1.488541663E-001
 -9.107999802E-001 4.057870102E+001 1.576379967E+001 1.463541538E-001
 -9.103999734E-001 4.050500107E+001 1.583790016E+001 1.439583302E-001
 -9.099000096E-001 4.042879868E+001 1.590530014E+001 1.416666806E-001
 -9.093999863E-001 4.035250092E+001 1.598110008E+001 1.393750012E-001
 -9.089000225E-001 4.027629852E+001 1.606040001E+001 1.372916698E-001
 -9.083999991E-001 4.019729996E+001 1.614649963E+001 1.352083385E-001
 -9.078999758E-001 4.012250137E+001 1.620899963E+001 1.331250072E-001
 -9.074000120E-001 4.004479980E+001 1.629019928E+001 1.311458349E-001
 -9.068999887E-001 3.996939850E+001 1.637479973E+001 1.293749958E-001
 -9.064999819E-001 3.989139938E+001 1.644930077E+001 1.276041716E-001
 -9.060000181E-001 3.981050110E+001 1.653059959E+001 1.258333325E-001
 -9.054999948E-001 3.973590088E+001 1.660849953E+001 1.242708340E-001
 -9.049999714E-001 3.966310120E+001 1.668320084E+001 1.227083281E-001
 -9.045000076E-001 3.958219910E+001 1.676469994E+001 1.212500036E-001
 -9.039999843E-001 3.950379944E+001 1.684110069E+001 1.197916716E-001
 -9.035000205E-001 3.942060089E+001 1.693120003E+001 1.184374988E-001
 -9.029999971E-001 3.933789825E+001 1.700779915E+001 1.171875000E-001
 -9.024999738E-001 3.925650024E+001 1.707929993E+001 1.159375012E-001
 -9.020999670E-001 3.917070007E+001 1.715940094E+001 1.146875024E-001
 -9.016000032E-001 3.909099960E+001 1.722080040E+001 1.135416627E-001
 -9.010999799E-001 3.900400162E+001 1.729759979E+001 1.123958379E-001
 -9.006000161E-001 3.891579819E+001 1.737100029E+001 1.112499982E-001
 -9.000999928E-001 3.882839966E+001 1.744099998E+001 1.102083325E-001
 -8.995999694E-001 3.874039841E+001 1.751799965E+001 1.091666669E-001
 -8.991000056E-001 3.865219879E+001 1.759160042E+001 1.080208272E-001
 -8.985999823E-001 3.856349945E+001 1.766690063E+001 1.070833281E-001
 -8.981999755E-001 3.847309875E+001 1.774060059E+001 1.060416698E-001
 -8.977000117E-001 3.838380051E+001 1.781430054E+001 1.049999967E-001
 -8.971999884E-001 3.829629898E+001 1.788129997E+001 1.040624976E-001
 -8.967000246E-001 3.820740128E+001 1.795339966E+001 1.031249985E-001
 -8.962000012E-001 3.811899948E+001 1.802379990E+001 1.022916660E-001
 -8.956999779E-001 3.802709961E+001 1.809950066E+001 1.013541669E-001
 -8.952000141E-001 3.794340134E+001 1.816839981E+001 1.005208343E-001
 -8.946999907E-001 3.785540009E+001 1.823730087E+001 9.979166090E-002
 -8.941999674E-001 3.776589966E+001 1.830800056E+001 9.906250238E-002
 -8.938000202E-001 3.767919922E+001 1.837179947E+001 9.833333641E-002
 -8.932999969E-001 3.759619904E+001 1.843390083E+001 9.770833701E-002
 -8.927999735E-001 3.750910187E+001 1.849959946E+001 9.708333015E-002
 -8.923000097E-001 3.742169952E+001 1.857040024E+001 9.656249732E-002
 -8.917999864E-001 3.733290100E+001 1.864649963E+001 9.604167193E-002
 -8.913000226E-001 3.724069977E+001 1.872789955E+001 9.562499821E-002
 -8.907999992E-001 3.715520096E+001 1.879549980E+001 9.520833194E-002
 -8.902999759E-001 3.706760025E+001 1.886310005E+001 9.489583224E-002
 -8.898999691E-001 3.697610092E+001 1.893770027E+001 9.468749911E-002
 -8.894000053E-001 3.689110184E+001 1.900379944E+001 9.447916597E-002
 -8.888999820E-001 3.680149841E+001 1.907500076E+001 9.427083284E-002
 -8.884000182E-001 3.670989990E+001 1.914979935E+001 9.416666627E-002
 -8.878999949E-001 3.661759949E+001 1.923170090E+001 9.416666627E-002
 -8.873999715E-001 3.652439880E+001 1.930489922E+001 9.416666627E-002
 -8.869000077E-001 3.643190002E+001 1.937109947E+001 9.416666627E-002
 -8.863999844E-001 3.633670044E+001 1.943569946E+001 9.427083284E-002
 -8.859000206E-001 3.624300003E+001 1.949860001E+001 9.437499940E-002
 -8.855000138E-001 3.614590073E+001 1.956679916E+001 9.458333254E-002
 -8.849999905E-001 3.604410172E+001 1.964019966E+001 9.479166567E-002
 -8.844999671E-001 3.594150162E+001 1.971730042E+001 9.499999881E-002
 -8.840000033E-001 3.584700012E+001 1.977510071E+001 9.520833194E-002
 -8.834999800E-001 3.574909973E+001 1.983830070E+001 9.552083910E-002
 -8.830000162E-001 3.564870071E+001 1.990670013E+001 9.583333135E-002
 -8.824999928E-001 3.554740143E+001 1.997870064E+001 9.614583105E-002
 -8.819999695E-001 3.544300079E+001 2.005430031E+001 9.656249732E-002
 -8.816000223E-001 3.534659958E+001 2.011590004E+001 9.697916359E-002
 -8.810999990E-001 3.524850082E+001 2.017580032E+001 9.749999642E-002
 -8.805999756E-001 3.515000153E+001 2.024099922E+001 9.802082926E-002
 -8.801000118E-001 3.505049896E+001 2.030629921E+001 9.854166955E-002
 -8.795999885E-001 3.495100021E+001 2.037159920E+001 9.906250238E-002
 -8.791000247E-001 3.485279846E+001 2.043169975E+001 9.968750179E-002
 -8.786000013E-001 3.475379944E+001 2.049530029E+001 1.004166678E-001
 -8.780999780E-001 3.465729904E+001 2.055730057E+001 1.011458337E-001
 -8.776000142E-001 3.455730057E+001 2.062450027E+001 1.018749997E-001
 -8.772000074E-001 3.445920181E+001 2.068829918E+001 1.026041657E-001
 -8.766999841E-001 3.435910034E+001 2.075219917E+001 1.034374982E-001
 -8.762000203E-001 3.425949860E+001 2.081789970E+001 1.042708382E-001
 -8.756999969E-001 3.416249847E+001 2.088190079E+001 1.052083373E-001
 -8.751999736E-001 3.406309891E+001 2.095120049E+001 1.061458290E-001
 -8.747000098E-001 3.396500015E+001 2.101530075E+001 1.069791690E-001
 -8.741999865E-001 3.386479950E+001 2.107939911E+001 1.079166681E-001
 -8.737000227E-001 3.376330185E+001 2.115250015E+001 1.089583337E-001
 -8.731999993E-001 3.366339874E+001 2.122389984E+001 1.098958328E-001
 -8.727999926E-001 3.356169891E+001 2.129000092E+001 1.108333319E-001
 -8.722999692E-001 3.345830154E+001 2.135440063E+001 1.117708310E-001
 -8.718000054E-001 3.335990143E+001 2.141169930E+001 1.127083302E-001
 -8.712999821E-001 3.325009918E+001 2.148870087E+001 1.135416627E-001
 -8.708000183E-001 3.314759827E+001 2.154960060E+001 1.144791618E-001
 -8.702999949E-001 3.303889847E+001 2.161420059E+001 1.153124943E-001
 -8.697999716E-001 3.293109894E+001 2.167530060E+001 1.160416678E-001
 -8.693000078E-001 3.282780075E+001 2.173100090E+001 1.168750003E-001
 -8.689000010E-001 3.271390152E+001 2.179940033E+001 1.174999997E-001
 -8.683999777E-001 3.260490036E+001 2.185700035E+001 1.181249991E-001
 -8.679000139E-001 3.249399948E+001 2.192189980E+001 1.187499985E-001
 -8.673999906E-001 3.238259888E+001 2.198500061E+001 1.192708313E-001
 -8.668999672E-001 3.227470016E+001 2.204640007E+001 1.197916716E-001
 -8.664000034E-001 3.216320038E+001 2.210969925E+001 1.202083379E-001
 -8.658999801E-001 3.205319977E+001 2.217119980E+001 1.206250042E-001
 -8.654000163E-001 3.194269943E+001 2.223089981E+001 1.209374964E-001
 -8.648999929E-001 3.183419991E+001 2.229070091E+001 1.212500036E-001
 -8.644999862E-001 3.172710037E+001 2.234510040E+001 1.215625033E-001
 -8.640000224E-001 3.161409950E+001 2.241040039E+001 1.217708290E-001
 -8.634999990E-001 3.150950050E+001 2.245949936E+001 1.219791695E-001
 -8.629999757E-001 3.139789963E+001 2.252309990E+001 1.220833361E-001
 -8.625000119E-001 3.128730011E+001 2.258320045E+001 1.222916618E-001
 -8.619999886E-001 3.118320084E+001 2.263419914E+001 1.223958358E-001
 -8.615000248E-001 3.107309914E+001 2.269249916E+001 1.225000024E-001
 -8.610000014E-001 3.095999908E+001 2.275819969E+001 1.226041690E-001
 -8.605999947E-001 3.085540009E+001 2.281119919E+001 1.228125021E-001
 -8.600999713E-001 3.074340057E+001 2.287700081E+001 1.229166687E-001
 -8.596000075E-001 3.063319969E+001 2.293549919E+001 1.231249943E-001
 -8.590999842E-001 3.052519989E+001 2.299780083E+001 1.232291684E-001
 -8.586000204E-001 3.041460037E+001 2.305830002E+001 1.234375015E-001
 -8.580999970E-001 3.030290031E+001 2.312249947E+001 1.237500012E-001
 -8.575999737E-001 3.019190025E+001 2.318860054E+001 1.240624934E-001
 -8.571000099E-001 3.008060074E+001 2.324740028E+001 1.243750006E-001
 -8.565999866E-001 2.997030067E+001 2.330260086E+001 1.246875003E-001
 -8.561999798E-001 2.985700035E+001 2.336520004E+001 1.251041591E-001
 -8.557000160E-001 2.974150085E+001 2.342790031E+001 1.256249994E-001
 -8.551999927E-001 2.963089943E+001 2.347590065E+001 1.261458397E-001
 -8.546999693E-001 2.951320076E+001 2.353499985E+001 1.267708242E-001
 -8.542000055E-001 2.939550018E+001 2.359420013E+001 1.273958385E-001
 -8.536999822E-001 2.927470016E+001 2.365340042E+001 1.281249970E-001
 -8.532000184E-001 2.915730095E+001 2.370709991E+001 1.288541704E-001
 -8.526999950E-001 2.903739929E+001 2.376269913E+001 1.296875030E-001
 -8.522999883E-001 2.891749954E+001 2.381839943E+001 1.306250095E-001
 -8.518000245E-001 2.879899979E+001 2.387220001E+001 1.316666603E-001
 -8.513000011E-001 2.868169975E+001 2.392609978E+001 1.328125000E-001
 -8.507999778E-001 2.856380081E+001 2.398200035E+001 1.339583397E-001
 -8.503000140E-001 2.843869972E+001 2.404159927E+001 1.352083385E-001
 -8.497999907E-001 2.832069969E+001 2.409379959E+001 1.365624964E-001
 -8.492999673E-001 2.820820045E+001 2.413669968E+001 1.380208284E-001
 -8.488000035E-001 2.808869934E+001 2.419079971E+001 1.394791752E-001
 -8.482999802E-001 2.796509933E+001 2.424880028E+001 1.411458254E-001
 -8.478999734E-001 2.785359955E+001 2.429179955E+001 1.428124905E-001
 -8.474000096E-001 2.773460007E+001 2.434420013E+001 1.445833296E-001
 -8.468999863E-001 2.761400032E+001 2.439850044E+001 1.464583278E-001
 -8.464000225E-001 2.749580002E+001 2.444729996E+001 1.484375000E-001
 -8.458999991E-001 2.737989998E+001 2.449990082E+001 1.505208313E-001
 -8.453999758E-001 2.725989914E+001 2.455620003E+001 1.526041776E-001
 -8.449000120E-001 2.714080048E+001 2.460890007E+001 1.547916681E-001
 -8.443999887E-001 2.702210045E+001 2.465970039E+001 1.570833325E-001
 -8.439999819E-001 2.690360069E+001 2.471439934E+001 1.594791710E-001
 -8.435000181E-001 2.678459930E+001 2.477090073E+001 1.618749946E-001
 -8.429999948E-001 2.666550064E+001 2.482379913E+001 1.643750072E-001
 -8.424999714E-001 2.654689980E+001 2.487859917E+001 1.668750048E-001
 -8.420000076E-001 2.643079948E+001 2.492779922E+001 1.694791615E-001
 -8.414999843E-001 2.630809975E+001 2.498649979E+001 1.720833331E-001
 -8.410000205E-001 2.618889999E+001 2.503569984E+001 1.747916639E-001
 -8.404999971E-001 2.606809998E+001 2.508699989E+001 1.773958355E-001
 -8.399999738E-001 2.594210052E+001 2.514200020E+001 1.802083254E-001
 -8.396000266E-001 2.581870079E+001 2.519519997E+001 1.829166710E-001
 -8.391000032E-001 2.569409943E+001 2.524469948E+001 1.856250018E-001
 -8.385999799E-001 2.556800079E+001 2.529610062E+001 1.883333325E-001
 -8.381000161E-001 2.544529915E+001 2.533799934E+001 1.911458373E-001
 -8.375999928E-001 2.531450081E+001 2.539529991E+001 1.938541681E-001
 -8.371000290E-001 2.519020081E+001 2.543540001E+001 1.965624988E-001
 -8.366000056E-001 2.506189919E+001 2.548699951E+001 1.992708445E-001
 -8.360999823E-001 2.493659973E+001 2.553100014E+001 2.018750012E-001
 -8.356999755E-001 2.480680084E+001 2.558460045E+001 2.044791728E-001
 -8.352000117E-001 2.468409920E+001 2.562669945E+001 2.071875036E-001
 -8.346999884E-001 2.455170059E+001 2.568230057E+001 2.096875012E-001
 -8.342000246E-001 2.443040085E+001 2.571879959E+001 2.122916579E-001
 -8.337000012E-001 2.429990005E+001 2.576679993E+001 2.147916704E-001
 -8.331999779E-001 2.417709923E+001 2.580909920E+001 2.171874940E-001
 -8.327000141E-001 2.404920006E+001 2.585530090E+001 2.195833474E-001
 -8.321999907E-001 2.392379951E+001 2.589579964E+001 2.219791710E-001
 -8.317000270E-001 2.379689980E+001 2.594199944E+001 2.242708206E-001
 -8.313000202E-001 2.367350006E+001 2.598259926E+001 2.264583260E-001
 -8.307999969E-001 2.354509926E+001 2.603079987E+001 2.286458313E-001
 -8.302999735E-001 2.342219925E+001 2.606949997E+001 2.308333218E-001
 -8.298000097E-001 2.329689980E+001 2.611400032E+001 2.329166681E-001
 -8.292999864E-001 2.317000008E+001 2.616040039E+001 2.348958403E-001
 -8.288000226E-001 2.304100037E+001 2.621080017E+001 2.367708385E-001
 -8.282999992E-001 2.291559982E+001 2.625539970E+001 2.386458367E-001
 -8.277999759E-001 2.278770065E+001 2.630590057E+001 2.405208349E-001
 -8.274000287E-001 2.266329956E+001 2.634670067E+001 2.422916740E-001
 -8.269000053E-001 2.253689957E+001 2.639529991E+001 2.439583391E-001
 -8.263999820E-001 2.241200066E+001 2.643820000E+001 2.455208302E-001
 -8.259000182E-001 2.228199959E+001 2.649270058E+001 2.470833361E-001
 -8.253999949E-001 2.215699959E+001 2.653179932E+001 2.485416681E-001
 -8.248999715E-001 2.202639961E+001 2.658060074E+001 2.498958260E-001
 -8.244000077E-001 2.189970016E+001 2.661770058E+001 2.512499988E-001
 -8.238999844E-001 2.176329994E+001 2.666850090E+001 2.523958385E-001
 -8.234000206E-001 2.163349915E+001 2.670960045E+001 2.535416484E-001
 -8.230000138E-001 2.150370026E+001 2.674690056E+001 2.546874881E-001
 -8.224999905E-001 2.136610031E+001 2.679389954E+001 2.556250095E-001
 -8.220000267E-001 2.123410034E+001 2.683119965E+001 2.565625012E-001
 -8.215000033E-001 2.110320091E+001 2.686849976E+001 2.574999928E-001
 -8.209999800E-001 2.096969986E+001 2.691180038E+001 2.582291663E-001
 -8.205000162E-001 2.083349991E+001 2.695310020E+001 2.590624988E-001
 -8.199999928E-001 2.070260048E+001 2.699049950E+001 2.596875131E-001
 -8.195000291E-001 2.056859970E+001 2.703190041E+001 2.603124976E-001
 -8.191000223E-001 2.043549919E+001 2.706940079E+001 2.609374821E-001
 -8.185999990E-001 2.030139923E+001 2.711079979E+001 2.614583075E-001
 -8.180999756E-001 2.016979980E+001 2.714240074E+001 2.619791627E-001
 -8.176000118E-001 2.004080009E+001 2.717210007E+001 2.625000179E-001
 -8.170999885E-001 1.990719986E+001 2.721170044E+001 2.629166842E-001
 -8.166000247E-001 1.977779961E+001 2.724729919E+001 2.634375095E-001
 -8.161000013E-001 1.964360046E+001 2.728499985E+001 2.638541758E-001
 -8.155999780E-001 1.951149940E+001 2.731870079E+001 2.642708123E-001
 -8.151000142E-001 1.937739944E+001 2.736039925E+001 2.646875083E-001
 -8.147000074E-001 1.924530029E+001 2.739410019E+001 2.650000155E-001
 -8.141999841E-001 1.911479950E+001 2.742989922E+001 2.654166520E-001
 -8.137000203E-001 1.898170090E+001 2.746769905E+001 2.658333182E-001
 -8.131999969E-001 1.885210037E+001 2.749959946E+001 2.662500143E-001
 -8.126999736E-001 1.871649933E+001 2.754339981E+001 2.667708397E-001
 -8.122000098E-001 1.858589935E+001 2.757929993E+001 2.671875060E-001
 -8.116999865E-001 1.845229912E+001 2.761919975E+001 2.677083313E-001
 -8.112000227E-001 1.832130051E+001 2.765719986E+001 2.681249976E-001
 -8.106999993E-001 1.818659973E+001 2.769720078E+001 2.686458230E-001
 -8.102999926E-001 1.805699921E+001 2.772920036E+001 2.691666484E-001
 -8.098000288E-001 1.791869926E+001 2.777120018E+001 2.697916627E-001
 -8.093000054E-001 1.778549957E+001 2.780929947E+001 2.704166770E-001
 -8.087999821E-001 1.765320015E+001 2.783939934E+001 2.709375024E-001
 -8.083000183E-001 1.751370049E+001 2.787759972E+001 2.715624869E-001
 -8.077999949E-001 1.737890053E+001 2.790970039E+001 2.722916901E-001
 -8.072999716E-001 1.723830032E+001 2.794790077E+001 2.729166746E-001
 -8.068000078E-001 1.710280037E+001 2.797809982E+001 2.736458182E-001
 -8.064000010E-001 1.696730042E+001 2.800429916E+001 2.743749917E-001
 -8.058999777E-001 1.682769966E+001 2.803849983E+001 2.751041651E-001
 -8.054000139E-001 1.668650055E+001 2.807480049E+001 2.759374976E-001
 -8.048999906E-001 1.655209923E+001 2.810099983E+001 2.767708600E-001
 -8.044000268E-001 1.641390038E+001 2.812929916E+001 2.776041627E-001
 -8.039000034E-001 1.627370071E+001 2.816160011E+001 2.784374952E-001
 -8.033999801E-001 1.613820076E+001 2.818790054E+001 2.792708278E-001
 -8.029000163E-001 1.600110054E+001 2.821629906E+001 2.802083194E-001
 -8.023999929E-001 1.586400032E+001 2.824460030E+001 2.811458409E-001
 -8.019999862E-001 1.572939968E+001 2.826689911E+001 2.819791734E-001
 -8.015000224E-001 1.558920002E+001 2.829929924E+001 2.830208242E-001
 -8.009999990E-001 1.545160007E+001 2.832570076E+001 2.839583158E-001
 -8.004999757E-001 1.531499958E+001 2.835210037E+001 2.848958373E-001
 -8.000000119E-001 1.517879963E+001 2.837649918E+001 2.858333290E-001
 -7.994999886E-001 1.504230022E+001 2.840699959E+001 2.868750095E-001
 -7.990000248E-001 1.490460014E+001 2.843339920E+001 2.878125012E-001
 -7.985000014E-001 1.476389980E+001 2.846800041E+001 2.888541818E-001
 -7.980999947E-001 1.463090038E+001 2.848830032E+001 2.897916734E-001
 -7.975999713E-001 1.448859978E+001 2.852499962E+001 2.907291651E-001
 -7.971000075E-001 1.435350037E+001 2.854949951E+001 2.917708158E-001
 -7.965999842E-001 1.421700001E+001 2.858009911E+001 2.927083075E-001
 -7.961000204E-001 1.407670021E+001 2.861280060E+001 2.936458290E-001
 -7.955999970E-001 1.393859959E+001 2.864550018E+001 2.945833206E-001
 -7.950999737E-001 1.380300045E+001 2.867210007E+001 2.954166830E-001
 -7.946000099E-001 1.366219997E+001 2.870280075E+001 2.963541746E-001
 -7.940999866E-001 1.352149963E+001 2.873760033E+001 2.971874774E-001
 -7.936999798E-001 1.338469982E+001 2.875600052E+001 2.980208397E-001
 -7.932000160E-001 1.324540043E+001 2.878470039E+001 2.987499833E-001
 -7.926999927E-001 1.310499954E+001 2.880529976E+001 2.994791567E-001
 -7.922000289E-001 1.296510029E+001 2.882780075E+001 3.002083302E-001
 -7.917000055E-001 1.282359982E+001 2.885250092E+001 3.009374738E-001
 -7.911999822E-001 1.268319988E+001 2.887299919E+001 3.015624881E-001
 -7.907000184E-001 1.253750038E+001 2.890180016E+001 3.020833135E-001
 -7.901999950E-001 1.239710045E+001 2.892239952E+001 3.027083278E-001
 -7.897999883E-001 1.225559998E+001 2.894300079E+001 3.032291532E-001
 -7.893000245E-001 1.211260033E+001 2.896980095E+001 3.036458492E-001
 -7.888000011E-001 1.196949959E+001 2.899250031E+001 3.041666746E-001
 -7.882999778E-001 1.182740021E+001 2.901099968E+001 3.045833409E-001
 -7.878000140E-001 1.168789959E+001 2.902750015E+001 3.050000072E-001
 -7.872999907E-001 1.154380035E+001 2.905019951E+001 3.053125143E-001
 -7.868000269E-001 1.140170002E+001 2.906879997E+001 3.056249917E-001
 -7.863000035E-001 1.126220036E+001 2.908530045E+001 3.059374988E-001
 -7.857999802E-001 1.112119961E+001 2.910390091E+001 3.062500060E-001
 -7.853999734E-001 1.098219967E+001 2.911840057E+001 3.064583242E-001
 -7.849000096E-001 1.083759975E+001 2.914319992E+001 3.067708313E-001
 -7.843999863E-001 1.069709969E+001 2.915979958E+001 3.069791496E-001
 -7.839000225E-001 1.055179977E+001 2.918260002E+001 3.071874976E-001
 -7.833999991E-001 1.041489983E+001 2.919289970E+001 3.073958457E-001
 -7.828999758E-001 1.026920033E+001 2.921780014E+001 3.076041639E-001
 -7.824000120E-001 1.012670040E+001 2.924270058E+001 3.078125119E-001
 -7.818999887E-001 9.987199783E+000 2.925930023E+001 3.080208600E-001
 -7.814999819E-001 9.843000412E+000 2.927799988E+001 3.082291484E-001
 -7.810000181E-001 9.700400352E+000 2.930290031E+001 3.084374964E-001
 -7.804999948E-001 9.556799889E+000 2.932789993E+001 3.087500036E-001
 -7.799999714E-001 9.418299675E+000 2.934029961E+001 3.089583516E-001
 -7.795000076E-001 9.275699615E+000 2.936109924E+001 3.092708290E-001
 -7.789999843E-001 9.132599831E+000 2.938400078E+001 3.094791770E-001
 -7.785000205E-001 8.987899780E+000 2.940489960E+001 3.097916543E-001
 -7.779999971E-001 8.844200134E+000 2.942149925E+001 3.102083504E-001
 -7.774999738E-001 8.703100204E+000 2.943610001E+001 3.105208278E-001
 -7.771000266E-001 8.560299873E+000 2.944860077E+001 3.109374940E-001
 -7.766000032E-001 8.413999557E+000 2.946739960E+001 3.112500012E-001
 -7.760999799E-001 8.264499664E+000 2.949040031E+001 3.116666675E-001
 -7.756000161E-001 8.120200157E+000 2.950079918E+001 3.121874928E-001
 -7.750999928E-001 7.976900101E+000 2.951119995E+001 3.126041591E-001
 -7.746000290E-001 7.830500126E+000 2.952589989E+001 3.131249845E-001
 -7.741000056E-001 7.685699940E+000 2.953840065E+001 3.136458099E-001
 -7.735999823E-001 7.537199974E+000 2.955719948E+001 3.141666651E-001
 -7.731999755E-001 7.394899845E+000 2.956349945E+001 3.146874905E-001
 -7.727000117E-001 7.250599861E+000 2.957390022E+001 3.152083158E-001
 -7.721999884E-001 7.102600098E+000 2.958650017E+001 3.157291412E-001
 -7.717000246E-001 6.958700180E+000 2.959490013E+001 3.163541555E-001
 -7.712000012E-001 6.811800003E+000 2.960740089E+001 3.169791698E-001
 -7.706999779E-001 6.667900085E+000 2.961580086E+001 3.174999952E-001
 -7.702000141E-001 6.525199890E+000 2.962420082E+001 3.181250095E-001
 -7.696999907E-001 6.379300117E+000 2.963680077E+001 3.186458349E-001
 -7.692000270E-001 6.232299805E+000 2.964929962E+001 3.192708194E-001
 -7.688000202E-001 6.089000225E+000 2.965559959E+001 3.197916746E-001
 -7.682999969E-001 5.941999912E+000 2.966819954E+001 3.203125000E-001
 -7.677999735E-001 5.798699856E+000 2.967449951E+001 3.208333254E-001
 -7.673000097E-001 5.650700092E+000 2.969129944E+001 3.212499917E-001
 -7.667999864E-001 5.505899906E+000 2.970389938E+001 3.216666877E-001
 -7.663000226E-001 5.361000061E+000 2.971229935E+001 3.220833242E-001
 -7.657999992E-001 5.212500095E+000 2.973119926E+001 3.224999905E-001
 -7.652999759E-001 5.069699764E+000 2.973539925E+001 3.228124976E-001
 -7.649000287E-001 4.924300194E+000 2.975009918E+001 3.230208158E-001
 -7.644000053E-001 4.777800083E+000 2.976059914E+001 3.232291639E-001
 -7.638999820E-001 4.633500099E+000 2.977109909E+001 3.234374821E-001
 -7.634000182E-001 4.487100124E+000 2.978580093E+001 3.235416710E-001
 -7.628999949E-001 4.339600086E+000 2.979640007E+001 3.235416710E-001